########### generatePositions.py 2024/06/21 22:42:42 ###########
2560 atoms

2 atom types

0.0 255.1144 xlo xhi
0.0 11.04677756356124 ylo yhi
0.0 10.384714 zlo zhi

Masses

1 26.981539
2 14.0067
Atoms

1 1 1 4.440892098500626e-16 1.8411295939268735 0.0
2 1 2 4.440892098500626e-16 1.8411295939268735 1.947133875
3 1 1 1.5944650000000002 0.9205647969634367 2.5961785
4 1 2 1.5944650000000002 0.9205647969634367 4.543312375
5 1 1 4.440892098500626e-16 1.8411295939268735 5.192357
6 1 2 4.440892098500626e-16 1.8411295939268735 7.139490875
7 1 1 1.5944650000000002 0.9205647969634367 7.7885355
8 1 2 1.5944650000000002 0.9205647969634367 9.735669375
9 1 1 253.519935 4.602823984817183 0.0
10 1 2 253.519935 4.602823984817183 1.947133875
11 1 1 8.881784197001252e-16 3.682259187853747 2.5961785
12 1 2 8.881784197001252e-16 3.682259187853747 4.543312375
13 1 1 253.519935 4.602823984817183 5.192357
14 1 2 253.519935 4.602823984817183 7.139490875
15 1 1 8.881784197001252e-16 3.682259187853747 7.7885355
16 1 2 8.881784197001252e-16 3.682259187853747 9.735669375
17 1 1 251.92547 7.364518375707494 0.0
18 1 2 251.92547 7.364518375707494 1.947133875
19 1 1 253.519935 6.443953578744057 2.5961785
20 1 2 253.519935 6.443953578744057 4.543312375
21 1 1 251.92547 7.364518375707494 5.192357
22 1 2 251.92547 7.364518375707494 7.139490875
23 1 1 253.519935 6.443953578744057 7.7885355
24 1 2 253.519935 6.443953578744057 9.735669375
25 1 1 250.331005 10.126212766597805 0.0
26 1 2 250.331005 10.126212766597805 1.947133875
27 1 1 251.92547 9.205647969634368 2.5961785
28 1 2 251.92547 9.205647969634368 4.543312375
29 1 1 250.331005 10.126212766597805 5.192357
30 1 2 250.331005 10.126212766597805 7.139490875
31 1 1 251.92547 9.205647969634368 7.7885355
32 1 2 251.92547 9.205647969634368 9.735669375
33 1 1 3.1889300000000005 1.8411295939268735 0.0
34 1 2 3.1889300000000005 1.8411295939268735 1.947133875
35 1 1 4.7833950000000005 0.9205647969634367 2.5961785
36 1 2 4.7833950000000005 0.9205647969634367 4.543312375
37 1 1 3.1889300000000005 1.8411295939268735 5.192357
38 1 2 3.1889300000000005 1.8411295939268735 7.139490875
39 1 1 4.7833950000000005 0.9205647969634367 7.7885355
40 1 2 4.7833950000000005 0.9205647969634367 9.735669375
41 1 1 1.594465000000001 4.602823984817183 0.0
42 1 2 1.594465000000001 4.602823984817183 1.947133875
43 1 1 3.188930000000001 3.682259187853747 2.5961785
44 1 2 3.188930000000001 3.682259187853747 4.543312375
45 1 1 1.594465000000001 4.602823984817183 5.192357
46 1 2 1.594465000000001 4.602823984817183 7.139490875
47 1 1 3.188930000000001 3.682259187853747 7.7885355
48 1 2 3.188930000000001 3.682259187853747 9.735669375
49 1 1 1.7763568394002505e-15 7.364518375707494 0.0
50 1 2 1.7763568394002505e-15 7.364518375707494 1.947133875
51 1 1 1.5944650000000014 6.443953578744057 2.5961785
52 1 2 1.5944650000000014 6.443953578744057 4.543312375
53 1 1 1.7763568394002505e-15 7.364518375707494 5.192357
54 1 2 1.7763568394002505e-15 7.364518375707494 7.139490875
55 1 1 1.5944650000000014 6.443953578744057 7.7885355
56 1 2 1.5944650000000014 6.443953578744057 9.735669375
57 1 1 253.519935 10.126212766597805 0.0
58 1 2 253.519935 10.126212766597805 1.947133875
59 1 1 8.881784197001252e-16 9.205647969634368 2.5961785
60 1 2 8.881784197001252e-16 9.205647969634368 4.543312375
61 1 1 253.519935 10.126212766597805 5.192357
62 1 2 253.519935 10.126212766597805 7.139490875
63 1 1 8.881784197001252e-16 9.205647969634368 7.7885355
64 1 2 8.881784197001252e-16 9.205647969634368 9.735669375
65 1 1 6.37786 1.8411295939268735 0.0
66 1 2 6.37786 1.8411295939268735 1.947133875
67 1 1 7.9723250000000005 0.9205647969634367 2.5961785
68 1 2 7.9723250000000005 0.9205647969634367 4.543312375
69 1 1 6.37786 1.8411295939268735 5.192357
70 1 2 6.37786 1.8411295939268735 7.139490875
71 1 1 7.9723250000000005 0.9205647969634367 7.7885355
72 1 2 7.9723250000000005 0.9205647969634367 9.735669375
73 1 1 4.7833950000000005 4.602823984817183 0.0
74 1 2 4.7833950000000005 4.602823984817183 1.947133875
75 1 1 6.377860000000001 3.682259187853747 2.5961785
76 1 2 6.377860000000001 3.682259187853747 4.543312375
77 1 1 4.7833950000000005 4.602823984817183 5.192357
78 1 2 4.7833950000000005 4.602823984817183 7.139490875
79 1 1 6.377860000000001 3.682259187853747 7.7885355
80 1 2 6.377860000000001 3.682259187853747 9.735669375
81 1 1 3.188930000000002 7.364518375707494 0.0
82 1 2 3.188930000000002 7.364518375707494 1.947133875
83 1 1 4.783395000000001 6.443953578744057 2.5961785
84 1 2 4.783395000000001 6.443953578744057 4.543312375
85 1 1 3.188930000000002 7.364518375707494 5.192357
86 1 2 3.188930000000002 7.364518375707494 7.139490875
87 1 1 4.783395000000001 6.443953578744057 7.7885355
88 1 2 4.783395000000001 6.443953578744057 9.735669375
89 1 1 1.5944650000000014 10.126212766597805 0.0
90 1 2 1.5944650000000014 10.126212766597805 1.947133875
91 1 1 3.188930000000001 9.205647969634368 2.5961785
92 1 2 3.188930000000001 9.205647969634368 4.543312375
93 1 1 1.5944650000000014 10.126212766597805 5.192357
94 1 2 1.5944650000000014 10.126212766597805 7.139490875
95 1 1 3.188930000000001 9.205647969634368 7.7885355
96 1 2 3.188930000000001 9.205647969634368 9.735669375
97 1 1 9.566790000000003 1.8411295939268735 0.0
98 1 2 9.566790000000003 1.8411295939268735 1.947133875
99 1 1 11.161255 0.9205647969634367 2.5961785
100 1 2 11.161255 0.9205647969634367 4.543312375
101 1 1 9.566790000000003 1.8411295939268735 5.192357
102 1 2 9.566790000000003 1.8411295939268735 7.139490875
103 1 1 11.161255 0.9205647969634367 7.7885355
104 1 2 11.161255 0.9205647969634367 9.735669375
105 1 1 7.972325000000003 4.602823984817183 0.0
106 1 2 7.972325000000003 4.602823984817183 1.947133875
107 1 1 9.566790000000001 3.682259187853747 2.5961785
108 1 2 9.566790000000001 3.682259187853747 4.543312375
109 1 1 7.972325000000003 4.602823984817183 5.192357
110 1 2 7.972325000000003 4.602823984817183 7.139490875
111 1 1 9.566790000000001 3.682259187853747 7.7885355
112 1 2 9.566790000000001 3.682259187853747 9.735669375
113 1 1 6.377860000000004 7.364518375707494 0.0
114 1 2 6.377860000000004 7.364518375707494 1.947133875
115 1 1 7.972325000000002 6.443953578744057 2.5961785
116 1 2 7.972325000000002 6.443953578744057 4.543312375
117 1 1 6.377860000000004 7.364518375707494 5.192357
118 1 2 6.377860000000004 7.364518375707494 7.139490875
119 1 1 7.972325000000002 6.443953578744057 7.7885355
120 1 2 7.972325000000002 6.443953578744057 9.735669375
121 1 1 4.783395000000003 10.126212766597805 0.0
122 1 2 4.783395000000003 10.126212766597805 1.947133875
123 1 1 6.377860000000002 9.205647969634368 2.5961785
124 1 2 6.377860000000002 9.205647969634368 4.543312375
125 1 1 4.783395000000003 10.126212766597805 5.192357
126 1 2 4.783395000000003 10.126212766597805 7.139490875
127 1 1 6.377860000000002 9.205647969634368 7.7885355
128 1 2 6.377860000000002 9.205647969634368 9.735669375
129 1 1 12.755720000000002 1.8411295939268735 0.0
130 1 2 12.755720000000002 1.8411295939268735 1.947133875
131 1 1 14.350185 0.9205647969634367 2.5961785
132 1 2 14.350185 0.9205647969634367 4.543312375
133 1 1 12.755720000000002 1.8411295939268735 5.192357
134 1 2 12.755720000000002 1.8411295939268735 7.139490875
135 1 1 14.350185 0.9205647969634367 7.7885355
136 1 2 14.350185 0.9205647969634367 9.735669375
137 1 1 11.161255000000002 4.602823984817183 0.0
138 1 2 11.161255000000002 4.602823984817183 1.947133875
139 1 1 12.75572 3.682259187853747 2.5961785
140 1 2 12.75572 3.682259187853747 4.543312375
141 1 1 11.161255000000002 4.602823984817183 5.192357
142 1 2 11.161255000000002 4.602823984817183 7.139490875
143 1 1 12.75572 3.682259187853747 7.7885355
144 1 2 12.75572 3.682259187853747 9.735669375
145 1 1 9.566790000000003 7.364518375707494 0.0
146 1 2 9.566790000000003 7.364518375707494 1.947133875
147 1 1 11.161255 6.443953578744057 2.5961785
148 1 2 11.161255 6.443953578744057 4.543312375
149 1 1 9.566790000000003 7.364518375707494 5.192357
150 1 2 9.566790000000003 7.364518375707494 7.139490875
151 1 1 11.161255 6.443953578744057 7.7885355
152 1 2 11.161255 6.443953578744057 9.735669375
153 1 1 7.972325000000002 10.126212766597805 0.0
154 1 2 7.972325000000002 10.126212766597805 1.947133875
155 1 1 9.566790000000001 9.205647969634368 2.5961785
156 1 2 9.566790000000001 9.205647969634368 4.543312375
157 1 1 7.972325000000002 10.126212766597805 5.192357
158 1 2 7.972325000000002 10.126212766597805 7.139490875
159 1 1 9.566790000000001 9.205647969634368 7.7885355
160 1 2 9.566790000000001 9.205647969634368 9.735669375
161 1 1 15.944650000000001 1.8411295939268735 0.0
162 1 2 15.944650000000001 1.8411295939268735 1.947133875
163 1 1 17.539115 0.9205647969634367 2.5961785
164 1 2 17.539115 0.9205647969634367 4.543312375
165 1 1 15.944650000000001 1.8411295939268735 5.192357
166 1 2 15.944650000000001 1.8411295939268735 7.139490875
167 1 1 17.539115 0.9205647969634367 7.7885355
168 1 2 17.539115 0.9205647969634367 9.735669375
169 1 1 14.350185000000002 4.602823984817183 0.0
170 1 2 14.350185000000002 4.602823984817183 1.947133875
171 1 1 15.94465 3.682259187853747 2.5961785
172 1 2 15.94465 3.682259187853747 4.543312375
173 1 1 14.350185000000002 4.602823984817183 5.192357
174 1 2 14.350185000000002 4.602823984817183 7.139490875
175 1 1 15.94465 3.682259187853747 7.7885355
176 1 2 15.94465 3.682259187853747 9.735669375
177 1 1 12.755720000000002 7.364518375707494 0.0
178 1 2 12.755720000000002 7.364518375707494 1.947133875
179 1 1 14.350185 6.443953578744057 2.5961785
180 1 2 14.350185 6.443953578744057 4.543312375
181 1 1 12.755720000000002 7.364518375707494 5.192357
182 1 2 12.755720000000002 7.364518375707494 7.139490875
183 1 1 14.350185 6.443953578744057 7.7885355
184 1 2 14.350185 6.443953578744057 9.735669375
185 1 1 11.161255 10.126212766597805 0.0
186 1 2 11.161255 10.126212766597805 1.947133875
187 1 1 12.755719999999998 9.205647969634368 2.5961785
188 1 2 12.755719999999998 9.205647969634368 4.543312375
189 1 1 11.161255 10.126212766597805 5.192357
190 1 2 11.161255 10.126212766597805 7.139490875
191 1 1 12.755719999999998 9.205647969634368 7.7885355
192 1 2 12.755719999999998 9.205647969634368 9.735669375
193 1 1 19.133580000000002 1.8411295939268735 0.0
194 1 2 19.133580000000002 1.8411295939268735 1.947133875
195 1 1 20.728045000000005 0.9205647969634367 2.5961785
196 1 2 20.728045000000005 0.9205647969634367 4.543312375
197 1 1 19.133580000000002 1.8411295939268735 5.192357
198 1 2 19.133580000000002 1.8411295939268735 7.139490875
199 1 1 20.728045000000005 0.9205647969634367 7.7885355
200 1 2 20.728045000000005 0.9205647969634367 9.735669375
201 1 1 17.539115000000002 4.602823984817183 0.0
202 1 2 17.539115000000002 4.602823984817183 1.947133875
203 1 1 19.133580000000006 3.682259187853747 2.5961785
204 1 2 19.133580000000006 3.682259187853747 4.543312375
205 1 1 17.539115000000002 4.602823984817183 5.192357
206 1 2 17.539115000000002 4.602823984817183 7.139490875
207 1 1 19.133580000000006 3.682259187853747 7.7885355
208 1 2 19.133580000000006 3.682259187853747 9.735669375
209 1 1 15.944650000000005 7.364518375707494 0.0
210 1 2 15.944650000000005 7.364518375707494 1.947133875
211 1 1 17.539115000000006 6.443953578744057 2.5961785
212 1 2 17.539115000000006 6.443953578744057 4.543312375
213 1 1 15.944650000000005 7.364518375707494 5.192357
214 1 2 15.944650000000005 7.364518375707494 7.139490875
215 1 1 17.539115000000006 6.443953578744057 7.7885355
216 1 2 17.539115000000006 6.443953578744057 9.735669375
217 1 1 14.350185000000003 10.126212766597805 0.0
218 1 2 14.350185000000003 10.126212766597805 1.947133875
219 1 1 15.944650000000005 9.205647969634368 2.5961785
220 1 2 15.944650000000005 9.205647969634368 4.543312375
221 1 1 14.350185000000003 10.126212766597805 5.192357
222 1 2 14.350185000000003 10.126212766597805 7.139490875
223 1 1 15.944650000000005 9.205647969634368 7.7885355
224 1 2 15.944650000000005 9.205647969634368 9.735669375
225 1 1 22.32251 1.8411295939268735 0.0
226 1 2 22.32251 1.8411295939268735 1.947133875
227 1 1 23.916975000000004 0.9205647969634367 2.5961785
228 1 2 23.916975000000004 0.9205647969634367 4.543312375
229 1 1 22.32251 1.8411295939268735 5.192357
230 1 2 22.32251 1.8411295939268735 7.139490875
231 1 1 23.916975000000004 0.9205647969634367 7.7885355
232 1 2 23.916975000000004 0.9205647969634367 9.735669375
233 1 1 20.728045 4.602823984817183 0.0
234 1 2 20.728045 4.602823984817183 1.947133875
235 1 1 22.322510000000005 3.682259187853747 2.5961785
236 1 2 22.322510000000005 3.682259187853747 4.543312375
237 1 1 20.728045 4.602823984817183 5.192357
238 1 2 20.728045 4.602823984817183 7.139490875
239 1 1 22.322510000000005 3.682259187853747 7.7885355
240 1 2 22.322510000000005 3.682259187853747 9.735669375
241 1 1 19.133580000000002 7.364518375707494 0.0
242 1 2 19.133580000000002 7.364518375707494 1.947133875
243 1 1 20.728045000000005 6.443953578744057 2.5961785
244 1 2 20.728045000000005 6.443953578744057 4.543312375
245 1 1 19.133580000000002 7.364518375707494 5.192357
246 1 2 19.133580000000002 7.364518375707494 7.139490875
247 1 1 20.728045000000005 6.443953578744057 7.7885355
248 1 2 20.728045000000005 6.443953578744057 9.735669375
249 1 1 17.539115000000002 10.126212766597805 0.0
250 1 2 17.539115000000002 10.126212766597805 1.947133875
251 1 1 19.133580000000002 9.205647969634368 2.5961785
252 1 2 19.133580000000002 9.205647969634368 4.543312375
253 1 1 17.539115000000002 10.126212766597805 5.192357
254 1 2 17.539115000000002 10.126212766597805 7.139490875
255 1 1 19.133580000000002 9.205647969634368 7.7885355
256 1 2 19.133580000000002 9.205647969634368 9.735669375
257 1 1 25.51144 1.8411295939268735 0.0
258 1 2 25.51144 1.8411295939268735 1.947133875
259 1 1 27.105905000000003 0.9205647969634367 2.5961785
260 1 2 27.105905000000003 0.9205647969634367 4.543312375
261 1 1 25.51144 1.8411295939268735 5.192357
262 1 2 25.51144 1.8411295939268735 7.139490875
263 1 1 27.105905000000003 0.9205647969634367 7.7885355
264 1 2 27.105905000000003 0.9205647969634367 9.735669375
265 1 1 23.916975 4.602823984817183 0.0
266 1 2 23.916975 4.602823984817183 1.947133875
267 1 1 25.511440000000004 3.682259187853747 2.5961785
268 1 2 25.511440000000004 3.682259187853747 4.543312375
269 1 1 23.916975 4.602823984817183 5.192357
270 1 2 23.916975 4.602823984817183 7.139490875
271 1 1 25.511440000000004 3.682259187853747 7.7885355
272 1 2 25.511440000000004 3.682259187853747 9.735669375
273 1 1 22.32251 7.364518375707494 0.0
274 1 2 22.32251 7.364518375707494 1.947133875
275 1 1 23.916975000000004 6.443953578744057 2.5961785
276 1 2 23.916975000000004 6.443953578744057 4.543312375
277 1 1 22.32251 7.364518375707494 5.192357
278 1 2 22.32251 7.364518375707494 7.139490875
279 1 1 23.916975000000004 6.443953578744057 7.7885355
280 1 2 23.916975000000004 6.443953578744057 9.735669375
281 1 1 20.728045 10.126212766597805 0.0
282 1 2 20.728045 10.126212766597805 1.947133875
283 1 1 22.32251 9.205647969634368 2.5961785
284 1 2 22.32251 9.205647969634368 4.543312375
285 1 1 20.728045 10.126212766597805 5.192357
286 1 2 20.728045 10.126212766597805 7.139490875
287 1 1 22.32251 9.205647969634368 7.7885355
288 1 2 22.32251 9.205647969634368 9.735669375
289 1 1 28.70037 1.8411295939268735 0.0
290 1 2 28.70037 1.8411295939268735 1.947133875
291 1 1 30.294835000000003 0.9205647969634367 2.5961785
292 1 2 30.294835000000003 0.9205647969634367 4.543312375
293 1 1 28.70037 1.8411295939268735 5.192357
294 1 2 28.70037 1.8411295939268735 7.139490875
295 1 1 30.294835000000003 0.9205647969634367 7.7885355
296 1 2 30.294835000000003 0.9205647969634367 9.735669375
297 1 1 27.105905 4.602823984817183 0.0
298 1 2 27.105905 4.602823984817183 1.947133875
299 1 1 28.700370000000003 3.682259187853747 2.5961785
300 1 2 28.700370000000003 3.682259187853747 4.543312375
301 1 1 27.105905 4.602823984817183 5.192357
302 1 2 27.105905 4.602823984817183 7.139490875
303 1 1 28.700370000000003 3.682259187853747 7.7885355
304 1 2 28.700370000000003 3.682259187853747 9.735669375
305 1 1 25.51144 7.364518375707494 0.0
306 1 2 25.51144 7.364518375707494 1.947133875
307 1 1 27.105905000000003 6.443953578744057 2.5961785
308 1 2 27.105905000000003 6.443953578744057 4.543312375
309 1 1 25.51144 7.364518375707494 5.192357
310 1 2 25.51144 7.364518375707494 7.139490875
311 1 1 27.105905000000003 6.443953578744057 7.7885355
312 1 2 27.105905000000003 6.443953578744057 9.735669375
313 1 1 23.916975 10.126212766597805 0.0
314 1 2 23.916975 10.126212766597805 1.947133875
315 1 1 25.51144 9.205647969634368 2.5961785
316 1 2 25.51144 9.205647969634368 4.543312375
317 1 1 23.916975 10.126212766597805 5.192357
318 1 2 23.916975 10.126212766597805 7.139490875
319 1 1 25.51144 9.205647969634368 7.7885355
320 1 2 25.51144 9.205647969634368 9.735669375
321 1 1 31.889299999999995 1.8411295939268735 0.0
322 1 2 31.889299999999995 1.8411295939268735 1.947133875
323 1 1 33.483765 0.9205647969634367 2.5961785
324 1 2 33.483765 0.9205647969634367 4.543312375
325 1 1 31.889299999999995 1.8411295939268735 5.192357
326 1 2 31.889299999999995 1.8411295939268735 7.139490875
327 1 1 33.483765 0.9205647969634367 7.7885355
328 1 2 33.483765 0.9205647969634367 9.735669375
329 1 1 30.294834999999996 4.602823984817183 0.0
330 1 2 30.294834999999996 4.602823984817183 1.947133875
331 1 1 31.889300000000002 3.682259187853747 2.5961785
332 1 2 31.889300000000002 3.682259187853747 4.543312375
333 1 1 30.294834999999996 4.602823984817183 5.192357
334 1 2 30.294834999999996 4.602823984817183 7.139490875
335 1 1 31.889300000000002 3.682259187853747 7.7885355
336 1 2 31.889300000000002 3.682259187853747 9.735669375
337 1 1 28.70037 7.364518375707494 0.0
338 1 2 28.70037 7.364518375707494 1.947133875
339 1 1 30.294835000000003 6.443953578744057 2.5961785
340 1 2 30.294835000000003 6.443953578744057 4.543312375
341 1 1 28.70037 7.364518375707494 5.192357
342 1 2 28.70037 7.364518375707494 7.139490875
343 1 1 30.294835000000003 6.443953578744057 7.7885355
344 1 2 30.294835000000003 6.443953578744057 9.735669375
345 1 1 27.105904999999996 10.126212766597805 0.0
346 1 2 27.105904999999996 10.126212766597805 1.947133875
347 1 1 28.70037 9.205647969634368 2.5961785
348 1 2 28.70037 9.205647969634368 4.543312375
349 1 1 27.105904999999996 10.126212766597805 5.192357
350 1 2 27.105904999999996 10.126212766597805 7.139490875
351 1 1 28.70037 9.205647969634368 7.7885355
352 1 2 28.70037 9.205647969634368 9.735669375
353 1 1 35.07823 1.8411295939268735 0.0
354 1 2 35.07823 1.8411295939268735 1.947133875
355 1 1 36.672695 0.9205647969634367 2.5961785
356 1 2 36.672695 0.9205647969634367 4.543312375
357 1 1 35.07823 1.8411295939268735 5.192357
358 1 2 35.07823 1.8411295939268735 7.139490875
359 1 1 36.672695 0.9205647969634367 7.7885355
360 1 2 36.672695 0.9205647969634367 9.735669375
361 1 1 33.483765 4.602823984817183 0.0
362 1 2 33.483765 4.602823984817183 1.947133875
363 1 1 35.07823 3.682259187853747 2.5961785
364 1 2 35.07823 3.682259187853747 4.543312375
365 1 1 33.483765 4.602823984817183 5.192357
366 1 2 33.483765 4.602823984817183 7.139490875
367 1 1 35.07823 3.682259187853747 7.7885355
368 1 2 35.07823 3.682259187853747 9.735669375
369 1 1 31.8893 7.364518375707494 0.0
370 1 2 31.8893 7.364518375707494 1.947133875
371 1 1 33.483765 6.443953578744057 2.5961785
372 1 2 33.483765 6.443953578744057 4.543312375
373 1 1 31.8893 7.364518375707494 5.192357
374 1 2 31.8893 7.364518375707494 7.139490875
375 1 1 33.483765 6.443953578744057 7.7885355
376 1 2 33.483765 6.443953578744057 9.735669375
377 1 1 30.294834999999996 10.126212766597805 0.0
378 1 2 30.294834999999996 10.126212766597805 1.947133875
379 1 1 31.8893 9.205647969634368 2.5961785
380 1 2 31.8893 9.205647969634368 4.543312375
381 1 1 30.294834999999996 10.126212766597805 5.192357
382 1 2 30.294834999999996 10.126212766597805 7.139490875
383 1 1 31.8893 9.205647969634368 7.7885355
384 1 2 31.8893 9.205647969634368 9.735669375
385 1 1 38.267160000000004 1.8411295939268735 0.0
386 1 2 38.267160000000004 1.8411295939268735 1.947133875
387 1 1 39.861625000000004 0.9205647969634367 2.5961785
388 1 2 39.861625000000004 0.9205647969634367 4.543312375
389 1 1 38.267160000000004 1.8411295939268735 5.192357
390 1 2 38.267160000000004 1.8411295939268735 7.139490875
391 1 1 39.861625000000004 0.9205647969634367 7.7885355
392 1 2 39.861625000000004 0.9205647969634367 9.735669375
393 1 1 36.672695000000004 4.602823984817183 0.0
394 1 2 36.672695000000004 4.602823984817183 1.947133875
395 1 1 38.267160000000004 3.682259187853747 2.5961785
396 1 2 38.267160000000004 3.682259187853747 4.543312375
397 1 1 36.672695000000004 4.602823984817183 5.192357
398 1 2 36.672695000000004 4.602823984817183 7.139490875
399 1 1 38.267160000000004 3.682259187853747 7.7885355
400 1 2 38.267160000000004 3.682259187853747 9.735669375
401 1 1 35.078230000000005 7.364518375707494 0.0
402 1 2 35.078230000000005 7.364518375707494 1.947133875
403 1 1 36.672695000000004 6.443953578744057 2.5961785
404 1 2 36.672695000000004 6.443953578744057 4.543312375
405 1 1 35.078230000000005 7.364518375707494 5.192357
406 1 2 35.078230000000005 7.364518375707494 7.139490875
407 1 1 36.672695000000004 6.443953578744057 7.7885355
408 1 2 36.672695000000004 6.443953578744057 9.735669375
409 1 1 33.483765000000005 10.126212766597805 0.0
410 1 2 33.483765000000005 10.126212766597805 1.947133875
411 1 1 35.078230000000005 9.205647969634368 2.5961785
412 1 2 35.078230000000005 9.205647969634368 4.543312375
413 1 1 33.483765000000005 10.126212766597805 5.192357
414 1 2 33.483765000000005 10.126212766597805 7.139490875
415 1 1 35.078230000000005 9.205647969634368 7.7885355
416 1 2 35.078230000000005 9.205647969634368 9.735669375
417 1 1 41.45609 1.8411295939268735 0.0
418 1 2 41.45609 1.8411295939268735 1.947133875
419 1 1 43.050555 0.9205647969634367 2.5961785
420 1 2 43.050555 0.9205647969634367 4.543312375
421 1 1 41.45609 1.8411295939268735 5.192357
422 1 2 41.45609 1.8411295939268735 7.139490875
423 1 1 43.050555 0.9205647969634367 7.7885355
424 1 2 43.050555 0.9205647969634367 9.735669375
425 1 1 39.861625000000004 4.602823984817183 0.0
426 1 2 39.861625000000004 4.602823984817183 1.947133875
427 1 1 41.45609 3.682259187853747 2.5961785
428 1 2 41.45609 3.682259187853747 4.543312375
429 1 1 39.861625000000004 4.602823984817183 5.192357
430 1 2 39.861625000000004 4.602823984817183 7.139490875
431 1 1 41.45609 3.682259187853747 7.7885355
432 1 2 41.45609 3.682259187853747 9.735669375
433 1 1 38.267160000000004 7.364518375707494 0.0
434 1 2 38.267160000000004 7.364518375707494 1.947133875
435 1 1 39.861625000000004 6.443953578744057 2.5961785
436 1 2 39.861625000000004 6.443953578744057 4.543312375
437 1 1 38.267160000000004 7.364518375707494 5.192357
438 1 2 38.267160000000004 7.364518375707494 7.139490875
439 1 1 39.861625000000004 6.443953578744057 7.7885355
440 1 2 39.861625000000004 6.443953578744057 9.735669375
441 1 1 36.672695000000004 10.126212766597805 0.0
442 1 2 36.672695000000004 10.126212766597805 1.947133875
443 1 1 38.267160000000004 9.205647969634368 2.5961785
444 1 2 38.267160000000004 9.205647969634368 4.543312375
445 1 1 36.672695000000004 10.126212766597805 5.192357
446 1 2 36.672695000000004 10.126212766597805 7.139490875
447 1 1 38.267160000000004 9.205647969634368 7.7885355
448 1 2 38.267160000000004 9.205647969634368 9.735669375
449 1 1 44.64502 1.8411295939268735 0.0
450 1 2 44.64502 1.8411295939268735 1.947133875
451 1 1 46.239485 0.9205647969634367 2.5961785
452 1 2 46.239485 0.9205647969634367 4.543312375
453 1 1 44.64502 1.8411295939268735 5.192357
454 1 2 44.64502 1.8411295939268735 7.139490875
455 1 1 46.239485 0.9205647969634367 7.7885355
456 1 2 46.239485 0.9205647969634367 9.735669375
457 1 1 43.050555 4.602823984817183 0.0
458 1 2 43.050555 4.602823984817183 1.947133875
459 1 1 44.64502 3.682259187853747 2.5961785
460 1 2 44.64502 3.682259187853747 4.543312375
461 1 1 43.050555 4.602823984817183 5.192357
462 1 2 43.050555 4.602823984817183 7.139490875
463 1 1 44.64502 3.682259187853747 7.7885355
464 1 2 44.64502 3.682259187853747 9.735669375
465 1 1 41.45609 7.364518375707494 0.0
466 1 2 41.45609 7.364518375707494 1.947133875
467 1 1 43.050555 6.443953578744057 2.5961785
468 1 2 43.050555 6.443953578744057 4.543312375
469 1 1 41.45609 7.364518375707494 5.192357
470 1 2 41.45609 7.364518375707494 7.139490875
471 1 1 43.050555 6.443953578744057 7.7885355
472 1 2 43.050555 6.443953578744057 9.735669375
473 1 1 39.861625000000004 10.126212766597805 0.0
474 1 2 39.861625000000004 10.126212766597805 1.947133875
475 1 1 41.45609 9.205647969634368 2.5961785
476 1 2 41.45609 9.205647969634368 4.543312375
477 1 1 39.861625000000004 10.126212766597805 5.192357
478 1 2 39.861625000000004 10.126212766597805 7.139490875
479 1 1 41.45609 9.205647969634368 7.7885355
480 1 2 41.45609 9.205647969634368 9.735669375
481 1 1 47.83395 1.8411295939268735 0.0
482 1 2 47.83395 1.8411295939268735 1.947133875
483 1 1 49.428415 0.9205647969634367 2.5961785
484 1 2 49.428415 0.9205647969634367 4.543312375
485 1 1 47.83395 1.8411295939268735 5.192357
486 1 2 47.83395 1.8411295939268735 7.139490875
487 1 1 49.428415 0.9205647969634367 7.7885355
488 1 2 49.428415 0.9205647969634367 9.735669375
489 1 1 46.239485 4.602823984817183 0.0
490 1 2 46.239485 4.602823984817183 1.947133875
491 1 1 47.83395 3.682259187853747 2.5961785
492 1 2 47.83395 3.682259187853747 4.543312375
493 1 1 46.239485 4.602823984817183 5.192357
494 1 2 46.239485 4.602823984817183 7.139490875
495 1 1 47.83395 3.682259187853747 7.7885355
496 1 2 47.83395 3.682259187853747 9.735669375
497 1 1 44.64502 7.364518375707494 0.0
498 1 2 44.64502 7.364518375707494 1.947133875
499 1 1 46.239485 6.443953578744057 2.5961785
500 1 2 46.239485 6.443953578744057 4.543312375
501 1 1 44.64502 7.364518375707494 5.192357
502 1 2 44.64502 7.364518375707494 7.139490875
503 1 1 46.239485 6.443953578744057 7.7885355
504 1 2 46.239485 6.443953578744057 9.735669375
505 1 1 43.050555 10.126212766597805 0.0
506 1 2 43.050555 10.126212766597805 1.947133875
507 1 1 44.64502 9.205647969634368 2.5961785
508 1 2 44.64502 9.205647969634368 4.543312375
509 1 1 43.050555 10.126212766597805 5.192357
510 1 2 43.050555 10.126212766597805 7.139490875
511 1 1 44.64502 9.205647969634368 7.7885355
512 1 2 44.64502 9.205647969634368 9.735669375
513 1 1 51.02288 1.8411295939268735 0.0
514 1 2 51.02288 1.8411295939268735 1.947133875
515 1 1 52.617345 0.9205647969634367 2.5961785
516 1 2 52.617345 0.9205647969634367 4.543312375
517 1 1 51.02288 1.8411295939268735 5.192357
518 1 2 51.02288 1.8411295939268735 7.139490875
519 1 1 52.617345 0.9205647969634367 7.7885355
520 1 2 52.617345 0.9205647969634367 9.735669375
521 1 1 49.428415 4.602823984817183 0.0
522 1 2 49.428415 4.602823984817183 1.947133875
523 1 1 51.02288 3.682259187853747 2.5961785
524 1 2 51.02288 3.682259187853747 4.543312375
525 1 1 49.428415 4.602823984817183 5.192357
526 1 2 49.428415 4.602823984817183 7.139490875
527 1 1 51.02288 3.682259187853747 7.7885355
528 1 2 51.02288 3.682259187853747 9.735669375
529 1 1 47.83395 7.364518375707494 0.0
530 1 2 47.83395 7.364518375707494 1.947133875
531 1 1 49.428415 6.443953578744057 2.5961785
532 1 2 49.428415 6.443953578744057 4.543312375
533 1 1 47.83395 7.364518375707494 5.192357
534 1 2 47.83395 7.364518375707494 7.139490875
535 1 1 49.428415 6.443953578744057 7.7885355
536 1 2 49.428415 6.443953578744057 9.735669375
537 1 1 46.239485 10.126212766597805 0.0
538 1 2 46.239485 10.126212766597805 1.947133875
539 1 1 47.83395 9.205647969634368 2.5961785
540 1 2 47.83395 9.205647969634368 4.543312375
541 1 1 46.239485 10.126212766597805 5.192357
542 1 2 46.239485 10.126212766597805 7.139490875
543 1 1 47.83395 9.205647969634368 7.7885355
544 1 2 47.83395 9.205647969634368 9.735669375
545 1 1 54.21181 1.8411295939268735 0.0
546 1 2 54.21181 1.8411295939268735 1.947133875
547 1 1 55.806275 0.9205647969634367 2.5961785
548 1 2 55.806275 0.9205647969634367 4.543312375
549 1 1 54.21181 1.8411295939268735 5.192357
550 1 2 54.21181 1.8411295939268735 7.139490875
551 1 1 55.806275 0.9205647969634367 7.7885355
552 1 2 55.806275 0.9205647969634367 9.735669375
553 1 1 52.617345 4.602823984817183 0.0
554 1 2 52.617345 4.602823984817183 1.947133875
555 1 1 54.21181 3.682259187853747 2.5961785
556 1 2 54.21181 3.682259187853747 4.543312375
557 1 1 52.617345 4.602823984817183 5.192357
558 1 2 52.617345 4.602823984817183 7.139490875
559 1 1 54.21181 3.682259187853747 7.7885355
560 1 2 54.21181 3.682259187853747 9.735669375
561 1 1 51.02288 7.364518375707494 0.0
562 1 2 51.02288 7.364518375707494 1.947133875
563 1 1 52.617345 6.443953578744057 2.5961785
564 1 2 52.617345 6.443953578744057 4.543312375
565 1 1 51.02288 7.364518375707494 5.192357
566 1 2 51.02288 7.364518375707494 7.139490875
567 1 1 52.617345 6.443953578744057 7.7885355
568 1 2 52.617345 6.443953578744057 9.735669375
569 1 1 49.428415 10.126212766597805 0.0
570 1 2 49.428415 10.126212766597805 1.947133875
571 1 1 51.02288 9.205647969634368 2.5961785
572 1 2 51.02288 9.205647969634368 4.543312375
573 1 1 49.428415 10.126212766597805 5.192357
574 1 2 49.428415 10.126212766597805 7.139490875
575 1 1 51.02288 9.205647969634368 7.7885355
576 1 2 51.02288 9.205647969634368 9.735669375
577 1 1 57.40074 1.8411295939268735 0.0
578 1 2 57.40074 1.8411295939268735 1.947133875
579 1 1 58.995205 0.9205647969634367 2.5961785
580 1 2 58.995205 0.9205647969634367 4.543312375
581 1 1 57.40074 1.8411295939268735 5.192357
582 1 2 57.40074 1.8411295939268735 7.139490875
583 1 1 58.995205 0.9205647969634367 7.7885355
584 1 2 58.995205 0.9205647969634367 9.735669375
585 1 1 55.806275 4.602823984817183 0.0
586 1 2 55.806275 4.602823984817183 1.947133875
587 1 1 57.40074 3.682259187853747 2.5961785
588 1 2 57.40074 3.682259187853747 4.543312375
589 1 1 55.806275 4.602823984817183 5.192357