########### generatePositions.py 2024/02/05 20:29:00 ###########
24000 atoms

1 atom types

0.0 652.4748 xlo xhi
0.0 27.18645 ylo yhi
0.0 27.18645 zlo zhi

Masses

1 28.0855
Atoms

1 1 1 0.0 0.0 0.0
2 1 1 2.718645 2.718645 0.0
3 1 1 2.718645 0.0 2.718645
4 1 1 0.0 2.718645 2.718645
5 1 1 1.3593225 1.3593225 1.3593225
6 1 1 4.0779675 4.0779675 1.3593225
7 1 1 4.0779675 1.3593225 4.0779675
8 1 1 1.3593225 4.0779675 4.0779675
9 1 1 0.0 0.0 5.43729
10 1 1 2.718645 2.718645 5.43729
11 1 1 2.718645 0.0 8.155935
12 1 1 0.0 2.718645 8.155935
13 1 1 1.3593225 1.3593225 6.7966125
14 1 1 4.0779675 4.0779675 6.7966125
15 1 1 4.0779675 1.3593225 9.5152575
16 1 1 1.3593225 4.0779675 9.5152575
17 1 1 0.0 0.0 10.87458
18 1 1 2.718645 2.718645 10.87458
19 1 1 2.718645 0.0 13.593225
20 1 1 0.0 2.718645 13.593225
21 1 1 1.3593225 1.3593225 12.2339025
22 1 1 4.0779675 4.0779675 12.2339025
23 1 1 4.0779675 1.3593225 14.9525475
24 1 1 1.3593225 4.0779675 14.9525475
25 1 1 0.0 0.0 16.31187
26 1 1 2.718645 2.718645 16.31187
27 1 1 2.718645 0.0 19.030514999999998
28 1 1 0.0 2.718645 19.030514999999998
29 1 1 1.3593225 1.3593225 17.6711925
30 1 1 4.0779675 4.0779675 17.6711925
31 1 1 4.0779675 1.3593225 20.3898375
32 1 1 1.3593225 4.0779675 20.3898375
33 1 1 0.0 0.0 21.74916
34 1 1 2.718645 2.718645 21.74916
35 1 1 2.718645 0.0 24.467805
36 1 1 0.0 2.718645 24.467805
37 1 1 1.3593225 1.3593225 23.1084825
38 1 1 4.0779675 4.0779675 23.1084825
39 1 1 4.0779675 1.3593225 25.8271275
40 1 1 1.3593225 4.0779675 25.8271275
41 1 1 0.0 5.43729 0.0
42 1 1 2.718645 8.155935 0.0
43 1 1 2.718645 5.43729 2.718645
44 1 1 0.0 8.155935 2.718645
45 1 1 1.3593225 6.7966125 1.3593225
46 1 1 4.0779675 9.5152575 1.3593225
47 1 1 4.0779675 6.7966125 4.0779675
48 1 1 1.3593225 9.5152575 4.0779675
49 1 1 0.0 5.43729 5.43729
50 1 1 2.718645 8.155935 5.43729
51 1 1 2.718645 5.43729 8.155935
52 1 1 0.0 8.155935 8.155935
53 1 1 1.3593225 6.7966125 6.7966125
54 1 1 4.0779675 9.5152575 6.7966125
55 1 1 4.0779675 6.7966125 9.5152575
56 1 1 1.3593225 9.5152575 9.5152575
57 1 1 0.0 5.43729 10.87458
58 1 1 2.718645 8.155935 10.87458
59 1 1 2.718645 5.43729 13.593225
60 1 1 0.0 8.155935 13.593225
61 1 1 1.3593225 6.7966125 12.2339025
62 1 1 4.0779675 9.5152575 12.2339025
63 1 1 4.0779675 6.7966125 14.9525475
64 1 1 1.3593225 9.5152575 14.9525475
65 1 1 0.0 5.43729 16.31187
66 1 1 2.718645 8.155935 16.31187
67 1 1 2.718645 5.43729 19.030514999999998
68 1 1 0.0 8.155935 19.030514999999998
69 1 1 1.3593225 6.7966125 17.6711925
70 1 1 4.0779675 9.5152575 17.6711925
71 1 1 4.0779675 6.7966125 20.3898375
72 1 1 1.3593225 9.5152575 20.3898375
73 1 1 0.0 5.43729 21.74916
74 1 1 2.718645 8.155935 21.74916
75 1 1 2.718645 5.43729 24.467805
76 1 1 0.0 8.155935 24.467805
77 1 1 1.3593225 6.7966125 23.1084825
78 1 1 4.0779675 9.5152575 23.1084825
79 1 1 4.0779675 6.7966125 25.8271275
80 1 1 1.3593225 9.5152575 25.8271275
81 1 1 0.0 10.87458 0.0
82 1 1 2.718645 13.593225 0.0
83 1 1 2.718645 10.87458 2.718645
84 1 1 0.0 13.593225 2.718645
85 1 1 1.3593225 12.2339025 1.3593225
86 1 1 4.0779675 14.9525475 1.3593225
87 1 1 4.0779675 12.2339025 4.0779675
88 1 1 1.3593225 14.9525475 4.0779675
89 1 1 0.0 10.87458 5.43729
90 1 1 2.718645 13.593225 5.43729
91 1 1 2.718645 10.87458 8.155935
92 1 1 0.0 13.593225 8.155935
93 1 1 1.3593225 12.2339025 6.7966125
94 1 1 4.0779675 14.9525475 6.7966125
95 1 1 4.0779675 12.2339025 9.5152575
96 1 1 1.3593225 14.9525475 9.5152575
97 1 1 0.0 10.87458 10.87458
98 1 1 2.718645 13.593225 10.87458
99 1 1 2.718645 10.87458 13.593225
100 1 1 0.0 13.593225 13.593225
101 1 1 1.3593225 12.2339025 12.2339025
102 1 1 4.0779675 14.9525475 12.2339025
103 1 1 4.0779675 12.2339025 14.9525475
104 1 1 1.3593225 14.9525475 14.9525475
105 1 1 0.0 10.87458 16.31187
106 1 1 2.718645 13.593225 16.31187
107 1 1 2.718645 10.87458 19.030514999999998
108 1 1 0.0 13.593225 19.030514999999998
109 1 1 1.3593225 12.2339025 17.6711925
110 1 1 4.0779675 14.9525475 17.6711925
111 1 1 4.0779675 12.2339025 20.3898375
112 1 1 1.3593225 14.9525475 20.3898375
113 1 1 0.0 10.87458 21.74916
114 1 1 2.718645 13.593225 21.74916
115 1 1 2.718645 10.87458 24.467805
116 1 1 0.0 13.593225 24.467805
117 1 1 1.3593225 12.2339025 23.1084825
118 1 1 4.0779675 14.9525475 23.1084825
119 1 1 4.0779675 12.2339025 25.8271275
120 1 1 1.3593225 14.9525475 25.8271275
121 1 1 0.0 16.31187 0.0
122 1 1 2.718645 19.030514999999998 0.0
123 1 1 2.718645 16.31187 2.718645
124 1 1 0.0 19.030514999999998 2.718645
125 1 1 1.3593225 17.6711925 1.3593225
126 1 1 4.0779675 20.3898375 1.3593225
127 1 1 4.0779675 17.6711925 4.0779675
128 1 1 1.3593225 20.3898375 4.0779675
129 1 1 0.0 16.31187 5.43729
130 1 1 2.718645 19.030514999999998 5.43729
131 1 1 2.718645 16.31187 8.155935
132 1 1 0.0 19.030514999999998 8.155935
133 1 1 1.3593225 17.6711925 6.7966125
134 1 1 4.0779675 20.3898375 6.7966125
135 1 1 4.0779675 17.6711925 9.5152575
136 1 1 1.3593225 20.3898375 9.5152575
137 1 1 0.0 16.31187 10.87458
138 1 1 2.718645 19.030514999999998 10.87458
139 1 1 2.718645 16.31187 13.593225
140 1 1 0.0 19.030514999999998 13.593225
141 1 1 1.3593225 17.6711925 12.2339025
142 1 1 4.0779675 20.3898375 12.2339025
143 1 1 4.0779675 17.6711925 14.9525475
144 1 1 1.3593225 20.3898375 14.9525475
145 1 1 0.0 16.31187 16.31187
146 1 1 2.718645 19.030514999999998 16.31187
147 1 1 2.718645 16.31187 19.030514999999998
148 1 1 0.0 19.030514999999998 19.030514999999998
149 1 1 1.3593225 17.6711925 17.6711925
150 1 1 4.0779675 20.3898375 17.6711925
151 1 1 4.0779675 17.6711925 20.3898375
152 1 1 1.3593225 20.3898375 20.3898375
153 1 1 0.0 16.31187 21.74916
154 1 1 2.718645 19.030514999999998 21.74916
155 1 1 2.718645 16.31187 24.467805
156 1 1 0.0 19.030514999999998 24.467805
157 1 1 1.3593225 17.6711925 23.1084825
158 1 1 4.0779675 20.3898375 23.1084825
159 1 1 4.0779675 17.6711925 25.8271275
160 1 1 1.3593225 20.3898375 25.8271275
161 1 1 0.0 21.74916 0.0
162 1 1 2.718645 24.467805 0.0
163 1 1 2.718645 21.74916 2.718645
164 1 1 0.0 24.467805 2.718645
165 1 1 1.3593225 23.1084825 1.3593225
166 1 1 4.0779675 25.8271275 1.3593225
167 1 1 4.0779675 23.1084825 4.0779675
168 1 1 1.3593225 25.8271275 4.0779675
169 1 1 0.0 21.74916 5.43729
170 1 1 2.718645 24.467805 5.43729
171 1 1 2.718645 21.74916 8.155935
172 1 1 0.0 24.467805 8.155935
173 1 1 1.3593225 23.1084825 6.7966125
174 1 1 4.0779675 25.8271275 6.7966125
175 1 1 4.0779675 23.1084825 9.5152575
176 1 1 1.3593225 25.8271275 9.5152575
177 1 1 0.0 21.74916 10.87458
178 1 1 2.718645 24.467805 10.87458
179 1 1 2.718645 21.74916 13.593225
180 1 1 0.0 24.467805 13.593225
181 1 1 1.3593225 23.1084825 12.2339025
182 1 1 4.0779675 25.8271275 12.2339025
183 1 1 4.0779675 23.1084825 14.9525475
184 1 1 1.3593225 25.8271275 14.9525475
185 1 1 0.0 21.74916 16.31187
186 1 1 2.718645 24.467805 16.31187
187 1 1 2.718645 21.74916 19.030514999999998
188 1 1 0.0 24.467805 19.030514999999998
189 1 1 1.3593225 23.1084825 17.6711925
190 1 1 4.0779675 25.8271275 17.6711925
191 1 1 4.0779675 23.1084825 20.3898375
192 1 1 1.3593225 25.8271275 20.3898375
193 1 1 0.0 21.74916 21.74916
194 1 1 2.718645 24.467805 21.74916
195 1 1 2.718645 21.74916 24.467805
196 1 1 0.0 24.467805 24.467805
197 1 1 1.3593225 23.1084825 23.1084825
198 1 1 4.0779675 25.8271275 23.1084825
199 1 1 4.0779675 23.1084825 25.8271275
200 1 1 1.3593225 25.8271275 25.8271275
201 1 1 5.43729 0.0 0.0
202 1 1 8.155935 2.718645 0.0
203 1 1 8.155935 0.0 2.718645
204 1 1 5.43729 2.718645 2.718645
205 1 1 6.7966125 1.3593225 1.3593225
206 1 1 9.5152575 4.0779675 1.3593225
207 1 1 9.5152575 1.3593225 4.0779675
208 1 1 6.7966125 4.0779675 4.0779675
209 1 1 5.43729 0.0 5.43729
210 1 1 8.155935 2.718645 5.43729
211 1 1 8.155935 0.0 8.155935
212 1 1 5.43729 2.718645 8.155935
213 1 1 6.7966125 1.3593225 6.7966125
214 1 1 9.5152575 4.0779675 6.7966125
215 1 1 9.5152575 1.3593225 9.5152575
216 1 1 6.7966125 4.0779675 9.5152575
217 1 1 5.43729 0.0 10.87458
218 1 1 8.155935 2.718645 10.87458
219 1 1 8.155935 0.0 13.593225
220 1 1 5.43729 2.718645 13.593225
221 1 1 6.7966125 1.3593225 12.2339025
222 1 1 9.5152575 4.0779675 12.2339025
223 1 1 9.5152575 1.3593225 14.9525475
224 1 1 6.7966125 4.0779675 14.9525475
225 1 1 5.43729 0.0 16.31187
226 1 1 8.155935 2.718645 16.31187
227 1 1 8.155935 0.0 19.030514999999998
228 1 1 5.43729 2.718645 19.030514999999998
229 1 1 6.7966125 1.3593225 17.6711925
230 1 1 9.5152575 4.0779675 17.6711925
231 1 1 9.5152575 1.3593225 20.3898375
232 1 1 6.7966125 4.0779675 20.3898375
233 1 1 5.43729 0.0 21.74916
234 1 1 8.155935 2.718645 21.74916
235 1 1 8.155935 0.0 24.467805
236 1 1 5.43729 2.718645 24.467805
237 1 1 6.7966125 1.3593225 23.1084825
238 1 1 9.5152575 4.0779675 23.1084825
239 1 1 9.5152575 1.3593225 25.8271275
240 1 1 6.7966125 4.0779675 25.8271275
241 1 1 5.43729 5.43729 0.0
242 1 1 8.155935 8.155935 0.0
243 1 1 8.155935 5.43729 2.718645
244 1 1 5.43729 8.155935 2.718645
245 1 1 6.7966125 6.7966125 1.3593225
246 1 1 9.5152575 9.5152575 1.3593225
247 1 1 9.5152575 6.7966125 4.0779675
248 1 1 6.7966125 9.5152575 4.0779675
249 1 1 5.43729 5.43729 5.43729
250 1 1 8.155935 8.155935 5.43729
251 1 1 8.155935 5.43729 8.155935
252 1 1 5.43729 8.155935 8.155935
253 1 1 6.7966125 6.7966125 6.7966125
254 1 1 9.5152575 9.5152575 6.7966125
255 1 1 9.5152575 6.7966125 9.5152575
256 1 1 6.7966125 9.5152575 9.5152575
257 1 1 5.43729 5.43729 10.87458
258 1 1 8.155935 8.155935 10.87458
259 1 1 8.155935 5.43729 13.593225
260 1 1 5.43729 8.155935 13.593225
261 1 1 6.7966125 6.7966125 12.2339025
262 1 1 9.5152575 9.5152575 12.2339025
263 1 1 9.5152575 6.7966125 14.9525475
264 1 1 6.7966125 9.5152575 14.9525475
265 1 1 5.43729 5.43729 16.31187
266 1 1 8.155935 8.155935 16.31187
267 1 1 8.155935 5.43729 19.030514999999998
268 1 1 5.43729 8.155935 19.030514999999998
269 1 1 6.7966125 6.7966125 17.6711925
270 1 1 9.5152575 9.5152575 17.6711925
271 1 1 9.5152575 6.7966125 20.3898375
272 1 1 6.7966125 9.5152575 20.3898375
273 1 1 5.43729 5.43729 21.74916
274 1 1 8.155935 8.155935 21.74916
275 1 1 8.155935 5.43729 24.467805
276 1 1 5.43729 8.155935 24.467805
277 1 1 6.7966125 6.7966125 23.1084825
278 1 1 9.5152575 9.5152575 23.1084825
279 1 1 9.5152575 6.7966125 25.8271275
280 1 1 6.7966125 9.5152575 25.8271275
281 1 1 5.43729 10.87458 0.0
282 1 1 8.155935 13.593225 0.0
283 1 1 8.155935 10.87458 2.718645
284 1 1 5.43729 13.593225 2.718645
285 1 1 6.7966125 12.2339025 1.3593225
286 1 1 9.5152575 14.9525475 1.3593225
287 1 1 9.5152575 12.2339025 4.0779675
288 1 1 6.7966125 14.9525475 4.0779675
289 1 1 5.43729 10.87458 5.43729
290 1 1 8.155935 13.593225 5.43729
291 1 1 8.155935 10.87458 8.155935
292 1 1 5.43729 13.593225 8.155935
293 1 1 6.7966125 12.2339025 6.7966125
294 1 1 9.5152575 14.9525475 6.7966125
295 1 1 9.5152575 12.2339025 9.5152575
296 1 1 6.7966125 14.9525475 9.5152575
297 1 1 5.43729 10.87458 10.87458
298 1 1 8.155935 13.593225 10.87458
299 1 1 8.155935 10.87458 13.593225
300 1 1 5.43729 13.593225 13.593225
301 1 1 6.7966125 12.2339025 12.2339025
302 1 1 9.5152575 14.9525475 12.2339025
303 1 1 9.5152575 12.2339025 14.9525475
304 1 1 6.7966125 14.9525475 14.9525475
305 1 1 5.43729 10.87458 16.31187
306 1 1 8.155935 13.593225 16.31187
307 1 1 8.155935 10.87458 19.030514999999998
308 1 1 5.43729 13.593225 19.030514999999998
309 1 1 6.7966125 12.2339025 17.6711925
310 1 1 9.5152575 14.9525475 17.6711925
311 1 1 9.5152575 12.2339025 20.3898375
312 1 1 6.7966125 14.9525475 20.3898375
313 1 1 5.43729 10.87458 21.74916
314 1 1 8.155935 13.593225 21.74916
315 1 1 8.155935 10.87458 24.467805
316 1 1 5.43729 13.593225 24.467805
317 1 1 6.7966125 12.2339025 23.1084825
318 1 1 9.5152575 14.9525475 23.1084825
319 1 1 9.5152575 12.2339025 25.8271275
320 1 1 6.7966125 14.9525475 25.8271275
321 1 1 5.43729 16.31187 0.0
322 1 1 8.155935 19.030514999999998 0.0
323 1 1 8.155935 16.31187 2.718645
324 1 1 5.43729 19.030514999999998 2.718645
325 1 1 6.7966125 17.6711925 1.3593225
326 1 1 9.5152575 20.3898375 1.3593225
327 1 1 9.5152575 17.6711925 4.0779675
328 1 1 6.7966125 20.3898375 4.0779675
329 1 1 5.43729 16.31187 5.43729
330 1 1 8.155935 19.030514999999998 5.43729
331 1 1 8.155935 16.31187 8.155935
332 1 1 5.43729 19.030514999999998 8.155935
333 1 1 6.7966125 17.6711925 6.7966125
334 1 1 9.5152575 20.3898375 6.7966125
335 1 1 9.5152575 17.6711925 9.5152575
336 1 1 6.7966125 20.3898375 9.5152575
337 1 1 5.43729 16.31187 10.87458
338 1 1 8.155935 19.030514999999998 10.87458
339 1 1 8.155935 16.31187 13.593225
340 1 1 5.43729 19.030514999999998 13.593225
341 1 1 6.7966125 17.6711925 12.2339025
342 1 1 9.5152575 20.3898375 12.2339025
343 1 1 9.5152575 17.6711925 14.9525475
344 1 1 6.7966125 20.3898375 14.9525475
345 1 1 5.43729 16.31187 16.31187
346 1 1 8.155935 19.030514999999998 16.31187
347 1 1 8.155935 16.31187 19.030514999999998
348 1 1 5.43729 19.030514999999998 19.030514999999998
349 1 1 6.7966125 17.6711925 17.6711925
350 1 1 9.5152575 20.3898375 17.6711925
351 1 1 9.5152575 17.6711925 20.3898375
352 1 1 6.7966125 20.3898375 20.3898375
353 1 1 5.43729 16.31187 21.74916
354 1 1 8.155935 19.030514999999998 21.74916
355 1 1 8.155935 16.31187 24.467805
356 1 1 5.43729 19.030514999999998 24.467805
357 1 1 6.7966125 17.6711925 23.1084825
358 1 1 9.5152575 20.3898375 23.1084825
359 1 1 9.5152575 17.6711925 25.8271275
360 1 1 6.7966125 20.3898375 25.8271275
361 1 1 5.43729 21.74916 0.0
362 1 1 8.155935 24.467805 0.0
363 1 1 8.155935 21.74916 2.718645
364 1 1 5.43729 24.467805 2.718645
365 1 1 6.7966125 23.1084825 1.3593225
366 1 1 9.5152575 25.8271275 1.3593225
367 1 1 9.5152575 23.1084825 4.0779675
368 1 1 6.7966125 25.8271275 4.0779675
369 1 1 5.43729 21.74916 5.43729
370 1 1 8.155935 24.467805 5.43729
371 1 1 8.155935 21.74916 8.155935
372 1 1 5.43729 24.467805 8.155935
373 1 1 6.7966125 23.1084825 6.7966125
374 1 1 9.5152575 25.8271275 6.7966125
375 1 1 9.5152575 23.1084825 9.5152575
376 1 1 6.7966125 25.8271275 9.5152575
377 1 1 5.43729 21.74916 10.87458
378 1 1 8.155935 24.467805 10.87458
379 1 1 8.155935 21.74916 13.593225
380 1 1 5.43729 24.467805 13.593225
381 1 1 6.7966125 23.1084825 12.2339025
382 1 1 9.5152575 25.8271275 12.2339025
383 1 1 9.5152575 23.1084825 14.9525475
384 1 1 6.7966125 25.8271275 14.9525475
385 1 1 5.43729 21.74916 16.31187
386 1 1 8.155935 24.467805 16.31187
387 1 1 8.155935 21.74916 19.030514999999998
388 1 1 5.43729 24.467805 19.030514999999998
389 1 1 6.7966125 23.1084825 17.6711925
390 1 1 9.5152575 25.8271275 17.6711925
391 1 1 9.5152575 23.1084825 20.3898375
392 1 1 6.7966125 25.8271275 20.3898375
393 1 1 5.43729 21.74916 21.74916
394 1 1 8.155935 24.467805 21.74916
395 1 1 8.155935 21.74916 24.467805
396 1 1 5.43729 24.467805 24.467805
397 1 1 6.7966125 23.1084825 23.1084825
398 1 1 9.5152575 25.8271275 23.1084825
399 1 1 9.5152575 23.1084825 25.8271275
400 1 1 6.7966125 25.8271275 25.8271275
401 1 1 10.87458 0.0 0.0
402 1 1 13.593225 2.718645 0.0
403 1 1 13.593225 0.0 2.718645
404 1 1 10.87458 2.718645 2.718645
405 1 1 12.2339025 1.3593225 1.3593225
406 1 1 14.9525475 4.0779675 1.3593225
407 1 1 14.9525475 1.3593225 4.0779675
408 1 1 12.2339025 4.0779675 4.0779675
409 1 1 10.87458 0.0 5.43729
410 1 1 13.593225 2.718645 5.43729
411 1 1 13.593225 0.0 8.155935
412 1 1 10.87458 2.718645 8.155935
413 1 1 12.2339025 1.3593225 6.7966125
414 1 1 14.9525475 4.0779675 6.7966125
415 1 1 14.9525475 1.3593225 9.5152575
416 1 1 12.2339025 4.0779675 9.5152575
417 1 1 10.87458 0.0 10.87458
418 1 1 13.593225 2.718645 10.87458
419 1 1 13.593225 0.0 13.593225
420 1 1 10.87458 2.718645 13.593225
421 1 1 12.2339025 1.3593225 12.2339025
422 1 1 14.9525475 4.0779675 12.2339025
423 1 1 14.9525475 1.3593225 14.9525475
424 1 1 12.2339025 4.0779675 14.9525475
425 1 1 10.87458 0.0 16.31187
426 1 1 13.593225 2.718645 16.31187
427 1 1 13.593225 0.0 19.030514999999998
428 1 1 10.87458 2.718645 19.030514999999998
429 1 1 12.2339025 1.3593225 17.6711925
430 1 1 14.9525475 4.0779675 17.6711925
431 1 1 14.9525475 1.3593225 20.3898375
432 1 1 12.2339025 4.0779675 20.3898375
433 1 1 10.87458 0.0 21.74916
434 1 1 13.593225 2.718645 21.74916
435 1 1 13.593225 0.0 24.467805
436 1 1 10.87458 2.718645 24.467805
437 1 1 12.2339025 1.3593225 23.1084825
438 1 1 14.9525475 4.0779675 23.1084825
439 1 1 14.9525475 1.3593225 25.8271275
440 1 1 12.2339025 4.0779675 25.8271275
441 1 1 10.87458 5.43729 0.0
442 1 1 13.593225 8.155935 0.0
443 1 1 13.593225 5.43729 2.718645
444 1 1 10.87458 8.155935 2.718645
445 1 1 12.2339025 6.7966125 1.3593225
446 1 1 14.9525475 9.5152575 1.3593225
447 1 1 14.9525475 6.7966125 4.0779675
448 1 1 12.2339025 9.5152575 4.0779675
449 1 1 10.87458 5.43729 5.43729
450 1 1 13.593225 8.155935 5.43729
451 1 1 13.593225 5.43729 8.155935
452 1 1 10.87458 8.155935 8.155935
453 1 1 12.2339025 6.7966125 6.7966125
454 1 1 14.9525475 9.5152575 6.7966125
455 1 1 14.9525475 6.7966125 9.5152575
456 1 1 12.2339025 9.5152575 9.5152575
457 1 1 10.87458 5.43729 10.87458
458 1 1 13.593225 8.155935 10.87458
459 1 1 13.593225 5.43729 13.593225
460 1 1 10.87458 8.155935 13.593225
461 1 1 12.2339025 6.7966125 12.2339025
462 1 1 14.9525475 9.5152575 12.2339025
463 1 1 14.9525475 6.7966125 14.9525475
464 1 1 12.2339025 9.5152575 14.9525475
465 1 1 10.87458 5.43729 16.31187
466 1 1 13.593225 8.155935 16.31187
467 1 1 13.593225 5.43729 19.030514999999998
468 1 1 10.87458 8.155935 19.030514999999998
469 1 1 12.2339025 6.7966125 17.6711925
470 1 1 14.9525475 9.5152575 17.6711925
471 1 1 14.9525475 6.7966125 20.3898375
472 1 1 12.2339025 9.5152575 20.3898375
473 1 1 10.87458 5.43729 21.74916
474 1 1 13.593225 8.155935 21.74916
475 1 1 13.593225 5.43729 24.467805
476 1 1 10.87458 8.155935 24.467805
477 1 1 12.2339025 6.7966125 23.1084825
478 1 1 14.9525475 9.5152575 23.1084825
479 1 1 14.9525475 6.7966125 25.8271275
480 1 1 12.2339025 9.5152575 25.8271275
481 1 1 10.87458 10.87458 0.0
482 1 1 13.593225 13.593225 0.0
483 1 1 13.593225 10.87458 2.718645
484 1 1 10.87458 13.593225 2.718645
485 1 1 12.2339025 12.2339025 1.3593225
486 1 1 14.9525475 14.9525475 1.3593225
487 1 1 14.9525475 12.2339025 4.0779675
488 1 1 12.2339025 14.9525475 4.0779675
489 1 1 10.87458 10.87458 5.43729
490 1 1 13.593225 13.593225 5.43729
491 1 1 13.593225 10.87458 8.155935
492 1 1 10.87458 13.593225 8.155935
493 1 1 12.2339025 12.2339025 6.7966125
494 1 1 14.9525475 14.9525475 6.7966125
495 1 1 14.9525475 12.2339025 9.5152575
496 1 1 12.2339025 14.9525475 9.5152575
497 1 1 10.87458 10.87458 10.87458
498 1 1 13.593225 13.593225 10.87458
499 1 1 13.593225 10.87458 13.593225
500 1 1 10.87458 13.593225 13.593225
501 1 1 12.2339025 12.2339025 12.2339025
502 1 1 14.9525475 14.9525475 12.2339025
503 1 1 14.9525475 12.2339025 14.9525475
504 1 1 12.2339025 14.9525475 14.9525475
505 1 1 10.87458 10.87458 16.31187
506 1 1 13.593225 13.593225 16.31187
507 1 1 13.593225 10.87458 19.030514999999998
508 1 1 10.87458 13.593225 19.030514999999998
509 1 1 12.2339025 12.2339025 17.6711925
510 1 1 14.9525475 14.9525475 17.6711925
511 1 1 14.9525475 12.2339025 20.3898375
512 1 1 12.2339025 14.9525475 20.3898375
513 1 1 10.87458 10.87458 21.74916
514 1 1 13.593225 13.593225 21.74916
515 1 1 13.593225 10.87458 24.467805
516 1 1 10.87458 13.593225 24.467805
517 1 1 12.2339025 12.2339025 23.1084825
518 1 1 14.9525475 14.9525475 23.1084825
519 1 1 14.9525475 12.2339025 25.8271275
520 1 1 12.2339025 14.9525475 25.8271275
521 1 1 10.87458 16.31187 0.0
522 1 1 13.593225 19.030514999999998 0.0
523 1 1 13.593225 16.31187 2.718645
524 1 1 10.87458 19.030514999999998 2.718645
525 1 1 12.2339025 17.6711925 1.3593225
526 1 1 14.9525475 20.3898375 1.3593225
527 1 1 14.9525475 17.6711925 4.0779675
528 1 1 12.2339025 20.3898375 4.0779675
529 1 1 10.87458 16.31187 5.43729
530 1 1 13.593225 19.030514999999998 5.43729
531 1 1 13.593225 16.31187 8.155935
532 1 1 10.87458 19.030514999999998 8.155935
533 1 1 12.2339025 17.6711925 6.7966125
534 1 1 14.9525475 20.3898375 6.7966125
535 1 1 14.9525475 17.6711925 9.5152575
536 1 1 12.2339025 20.3898375 9.5152575
537 1 1 10.87458 16.31187 10.87458
538 1 1 13.593225 19.030514999999998 10.87458
539 1 1 13.593225 16.31187 13.593225
540 1 1 10.87458 19.030514999999998 13.593225
541 1 1 12.2339025 17.6711925 12.2339025
542 1 1 14.9525475 20.3898375 12.2339025
543 1 1 14.9525475 17.6711925 14.9525475
544 1 1 12.2339025 20.3898375 14.9525475
545 1 1 10.87458 16.31187 16.31187
546 1 1 13.593225 19.030514999999998 16.31187
547 1 1 13.593225 16.31187 19.030514999999998
548 1 1 10.87458 19.030514999999998 19.030514999999998
549 1 1 12.2339025 17.6711925 17.6711925
550 1 1 14.9525475 20.3898375 17.6711925
551 1 1 14.9525475 17.6711925 20.3898375
552 1 1 12.2339025 20.3898375 20.3898375
553 1 1 10.87458 16.31187 21.74916
554 1 1 13.593225 19.030514999999998 21.74916
555 1 1 13.593225 16.31187 24.467805
556 1 1 10.87458 19.030514999999998 24.467805
557 1 1 12.2339025 17.6711925 23.1084825
558 1 1 14.9525475 20.3898375 23.1084825
559 1 1 14.9525475 17.6711925 25.8271275
560 1 1 12.2339025 20.3898375 25.8271275
561 1 1 10.87458 21.74916 0.0
562 1 1 13.593225 24.467805 0.0
563 1 1 13.593225 21.74916 2.718645
564 1 1 10.87458 24.467805 2.718645
565 1 1 12.2339025 23.1084825 1.3593225
566 1 1 14.9525475 25.8271275 1.3593225
567 1 1 14.9525475 23.1084825 4.0779675
568 1 1 12.2339025 25.8271275 4.0779675
569 1 1 10.87458 21.74916 5.43729
570 1 1 13.593225 24.467805 5.43729
571 1 1 13.593225 21.74916 8.155935
572 1 1 10.87458 24.467805 8.155935
573 1 1 12.2339025 23.1084825 6.7966125
574 1 1 14.9525475 25.8271275 6.7966125
575 1 1 14.9525475 23.1084825 9.5152575
576 1 1 12.2339025 25.8271275 9.5152575
577 1 1 10.87458 21.74916 10.87458
578 1 1 13.593225 24.467805 10.87458
579 1 1 13.593225 21.74916 13.593225
580 1 1 10.87458 24.467805 13.593225
581 1 1 12.2339025 23.1084825 12.2339025
582 1 1 14.9525475 25.8271275 12.2339025
583 1 1 14.9525475 23.1084825 14.9525475
584 1 1 12.2339025 25.8271275 14.9525475
585 1 1 10.87458 21.74916 16.31187
586 1 1 13.593225 24.467805 16.31187
587 1 1 13.593225 21.74916 19.030514999999998
588 1 1 10.87458 24.467805 19.030514999999998
589 1 1 12.2339025 23.1084825 17.6711925
590 1 1 14.9525475 25.8271275 17.6711925
591 1 1 14.9525475 23.1084825 20.3898375
592 1 1 12.2339025 25.8271275 20.3898375
593 1 1 10.87458 21.74916 21.74916
594 1 1 13.593225 24.467805 21.74916
595 1 1 13.593225 21.74916 24.467805
596 1 1 10.87458 24.467805 24.467805
597 1 1 12.2339025 23.1084825 23.1084825
598 1 1 14.9525475 25.8271275 23.1084825
599 1 1 14.9525475 23.1084825 25.8271275
600 1 1 12.2339025 25.8271275 25.8271275
601 1 1 16.31187 0.0 0.0
602 1 1 19.030514999999998 2.718645 0.0
603 1 1 19.030514999999998 0.0 2.718645
604 1 1 16.31187 2.718645 2.718645
605 1 1 17.6711925 1.3593225 1.3593225
606 1 1 20.3898375 4.0779675 1.3593225
607 1 1 20.3898375 1.3593225 4.0779675
608 1 1 17.6711925 4.0779675 4.0779675
609 1 1 16.31187 0.0 5.43729
610 1 1 19.030514999999998 2.718645 5.43729
611 1 1 19.030514999999998 0.0 8.155935
612 1 1 16.31187 2.718645 8.155935
613 1 1 17.6711925 1.3593225 6.7966125
614 1 1 20.3898375 4.0779675 6.7966125
615 1 1 20.3898375 1.3593225 9.5152575
616 1 1 17.6711925 4.0779675 9.5152575
617 1 1 16.31187 0.0 10.87458
618 1 1 19.030514999999998 2.718645 10.87458
619 1 1 19.030514999999998 0.0 13.593225
620 1 1 16.31187 2.718645 13.593225
621 1 1 17.6711925 1.3593225 12.2339025
622 1 1 20.3898375 4.0779675 12.2339025
623 1 1 20.3898375 1.3593225 14.9525475
624 1 1 17.6711925 4.0779675 14.9525475
625 1 1 16.31187 0.0 16.31187
626 1 1 19.030514999999998 2.718645 16.31187
627 1 1 19.030514999999998 0.0 19.030514999999998
628 1 1 16.31187 2.718645 19.030514999999998
629 1 1 17.6711925 1.3593225 17.6711925
630 1 1 20.3898375 4.0779675 17.6711925
631 1 1 20.3898375 1.3593225 20.3898375
632 1 1 17.6711925 4.0779675 20.3898375
633 1 1 16.31187 0.0 21.74916
634 1 1 19.030514999999998 2.718645 21.74916
635 1 1 19.030514999999998 0.0 24.467805
636 1 1 16.31187 2.718645 24.467805
637 1 1 17.6711925 1.3593225 23.1084825
638 1 1 20.3898375 4.0779675 23.1084825
639 1 1 20.3898375 1.3593225 25.8271275
640 1 1 17.6711925 4.0779675 25.8271275
641 1 1 16.31187 5.43729 0.0
642 1 1 19.030514999999998 8.155935 0.0
643 1 1 19.030514999999998 5.43729 2.718645
644 1 1 16.31187 8.155935 2.718645
645 1 1 17.6711925 6.7966125 1.3593225
646 1 1 20.3898375 9.5152575 1.3593225
647 1 1 20.3898375 6.7966125 4.0779675
648 1 1 17.6711925 9.5152575 4.0779675
649 1 1 16.31187 5.43729 5.43729
650 1 1 19.030514999999998 8.155935 5.43729
651 1 1 19.030514999999998 5.43729 8.155935
652 1 1 16.31187 8.155935 8.155935
653 1 1 17.6711925 6.7966125 6.7966125
654 1 1 20.3898375 9.5152575 6.7966125
655 1 1 20.3898375 6.7966125 9.5152575
656 1 1 17.6711925 9.5152575 9.5152575
657 1 1 16.31187 5.43729 10.87458
658 1 1 19.030514999999998 8.155935 10.87458
659 1 1 19.030514999999998 5.43729 13.593225
660 1 1 16.31187 8.155935 13.593225
661 1 1 17.6711925 6.7966125 12.2339025
662 1 1 20.3898375 9.5152575 12.2339025
663 1 1 20.3898375 6.7966125 14.9525475
664 1 1 17.6711925 9.5152575 14.9525475
665 1 1 16.31187 5.43729 16.31187
666 1 1 19.030514999999998 8.155935 16.31187
667 1 1 19.030514999999998 5.43729 19.030514999999998
668 1 1 16.31187 8.155935 19.030514999999998
669 1 1 17.6711925 6.7966125 17.6711925
670 1 1 20.3898375 9.5152575 17.6711925
671 1 1 20.3898375 6.7966125 20.3898375
672 1 1 17.6711925 9.5152575 20.3898375
673 1 1 16.31187 5.43729 21.74916
674 1 1 19.030514999999998 8.155935 21.74916
675 1 1 19.030514999999998 5.43729 24.467805
676 1 1 16.31187 8.155935 24.467805
677 1 1 17.6711925 6.7966125 23.1084825
678 1 1 20.3898375 9.5152575 23.1084825
679 1 1 20.3898375 6.7966125 25.8271275
680 1 1 17.6711925 9.5152575 25.8271275
681 1 1 16.31187 10.87458 0.0
682 1 1 19.030514999999998 13.593225 0.0
683 1 1 19.030514999999998 10.87458 2.718645
684 1 1 16.31187 13.593225 2.718645
685 1 1 17.6711925 12.2339025 1.3593225
686 1 1 20.3898375 14.9525475 1.3593225
687 1 1 20.3898375 12.2339025 4.0779675
688 1 1 17.6711925 14.9525475 4.0779675
689 1 1 16.31187 10.87458 5.43729
690 1 1 19.030514999999998 13.593225 5.43729
691 1 1 19.030514999999998 10.87458 8.155935
692 1 1 16.31187 13.593225 8.155935
693 1 1 17.6711925 12.2339025 6.7966125
694 1 1 20.3898375 14.9525475 6.7966125
695 1 1 20.3898375 12.2339025 9.5152575
696 1 1 17.6711925 14.9525475 9.5152575
697 1 1 16.31187 10.87458 10.87458
698 1 1 19.030514999999998 13.593225 10.87458
699 1 1 19.030514999999998 10.87458 13.593225
700 1 1 16.31187 13.593225 13.593225
701 1 1 17.6711925 12.2339025 12.2339025
702 1 1 20.3898375 14.9525475 12.2339025
703 1 1 20.3898375 12.2339025 14.9525475
704 1 1 17.6711925 14.9525475 14.9525475
705 1 1 16.31187 10.87458 16.31187
706 1 1 19.030514999999998 13.593225 16.31187
707 1 1 19.030514999999998 10.87458 19.030514999999998
708 1 1 16.31187 13.593225 19.030514999999998
709 1 1 17.6711925 12.2339025 17.6711925
710 1 1 20.3898375 14.9525475 17.6711925
711 1 1 20.3898375 12.2339025 20.3898375
712 1 1 17.6711925 14.9525475 20.3898375
713 1 1 16.31187 10.87458 21.74916
714 1 1 19.030514999999998 13.593225 21.74916
715 1 1 19.030514999999998 10.87458 24.467805
716 1 1 16.31187 13.593225 24.467805
717 1 1 17.6711925 12.2339025 23.1084825
718 1 1 20.3898375 14.9525475 23.1084825
719 1 1 20.3898375 12.2339025 25.8271275
720 1 1 17.6711925 14.9525475 25.8271275
721 1 1 16.31187 16.31187 0.0
722 1 1 19.030514999999998 19.030514999999998 0.0
723 1 1 19.030514999999998 16.31187 2.718645
724 1 1 16.31187 19.030514999999998 2.718645
725 1 1 17.6711925 17.6711925 1.3593225
726 1 1 20.3898375 20.3898375 1.3593225
727 1 1 20.3898375 17.6711925 4.0779675
728 1 1 17.6711925 20.3898375 4.0779675
729 1 1 16.31187 16.31187 5.43729
730 1 1 19.030514999999998 19.030514999999998 5.43729
731 1 1 19.030514999999998 16.31187 8.155935
732 1 1 16.31187 19.030514999999998 8.155935
733 1 1 17.6711925 17.6711925 6.7966125
734 1 1 20.3898375 20.3898375 6.7966125
735 1 1 20.3898375 17.6711925 9.5152575
736 1 1 17.6711925 20.3898375 9.5152575
737 1 1 16.31187 16.31187 10.87458
738 1 1 19.030514999999998 19.030514999999998 10.87458
739 1 1 19.030514999999998 16.31187 13.593225
740 1 1 16.31187 19.030514999999998 13.593225
741 1 1 17.6711925 17.6711925 12.2339025
742 1 1 20.3898375 20.3898375 12.2339025
743 1 1 20.3898375 17.6711925 14.9525475
744 1 1 17.6711925 20.3898375 14.9525475
745 1 1 16.31187 16.31187 16.31187
746 1 1 19.030514999999998 19.030514999999998 16.31187
747 1 1 19.030514999999998 16.31187 19.030514999999998
748 1 1 16.31187 19.030514999999998 19.030514999999998
749 1 1 17.6711925 17.6711925 17.6711925
750 1 1 20.3898375 20.3898375 17.6711925
751 1 1 20.3898375 17.6711925 20.3898375
752 1 1 17.6711925 20.3898375 20.3898375
753 1 1 16.31187 16.31187 21.74916
754 1 1 19.030514999999998 19.030514999999998 21.74916
755 1 1 19.030514999999998 16.31187 24.467805
756 1 1 16.31187 19.030514999999998 24.467805
757 1 1 17.6711925 17.6711925 23.1084825
758 1 1 20.3898375 20.3898375 23.1084825
759 1 1 20.3898375 17.6711925 25.8271275
760 1 1 17.6711925 20.3898375 25.8271275
761 1 1 16.31187 21.74916 0.0
762 1 1 19.030514999999998 24.467805 0.0
763 1 1 19.030514999999998 21.74916 2.718645
764 1 1 16.31187 24.467805 2.718645
765 1 1 17.6711925 23.1084825 1.3593225
766 1 1 20.3898375 25.8271275 1.3593225
767 1 1 20.3898375 23.1084825 4.0779675
768 1 1 17.6711925 25.8271275 4.0779675
769 1 1 16.31187 21.74916 5.43729
770 1 1 19.030514999999998 24.467805 5.43729
771 1 1 19.030514999999998 21.74916 8.155935
772 1 1 16.31187 24.467805 8.155935
773 1 1 17.6711925 23.1084825 6.7966125
774 1 1 20.3898375 25.8271275 6.7966125
775 1 1 20.3898375 23.1084825 9.5152575
776 1 1 17.6711925 25.8271275 9.5152575
777 1 1 16.31187 21.74916 10.87458
778 1 1 19.030514999999998 24.467805 10.87458
779 1 1 19.030514999999998 21.74916 13.593225
780 1 1 16.31187 24.467805 13.593225
781 1 1 17.6711925 23.1084825 12.2339025
782 1 1 20.3898375 25.8271275 12.2339025
783 1 1 20.3898375 23.1084825 14.9525475